
   OpenMP run-time library returned nthreads =  8
 operating system is UNIX !

 escf (brusel.local) : TURBOMOLE V7.2 ( 21471 ) 11 Oct 2017 at 17:04:51
 Copyright (C) 2017 TURBOMOLE GmbH, Karlsruhe


    2018-02-05 15:32:34.870 




                                e s c f

                             TURBOMOLE GmbH


          integral direct evaluation of 

                    * excitation energies and transition moments 
                    * dynamic response properties 
                    * stabilities



          OpenMP Shared-Memory Parallelization:  8 CPUs.

            By: Erik P. Almaraz and Filipp Furche
            Copyright 2009-2011 by UCI and TURBOMOLE GmbH.



          references (see also programs dscf and ridft) 

          implementation and benchmarks (review) 
          F. Furche and D. Rappoport,  
          "Density functional methods for excited states: 
          equilibrium structure and electronic spectra",
          ch. III of "Computational Photochemistry", ed. by 
          M. Olivucci, vol. 16 of "Theoretical and Computational 
          Chemistry", Elsevier, Amsterdam, 2005.

          nonorthonormal Krylov space methods 
          F. Furche, B. T. Krull, B. D. Nguyen, J. Kwon, 
          J. Chem. Phys. 144 (2016), 174105.

          two-component GW quasi particle energies 
          M. Kuehn and F. Weigend, 
          J. Chem. Theory Comput. 11 (2015), 969.

          two-component TDDFT with spin-orbit coupling 
          M. Kuehn and F. Weigend, 
          J. Chem. Theory Comput. 9 (2013), 5341.
          M. Kuehn and F. Weigend, 
          J. Chem. Phys. 142 (2015), 034116.

          GW quasi particle energies
          M. J. van Setten, F. Weigend, and F. Evers,
          J. Chem. Theory Comput. 9 (2013), 232.

          current-density dependent meta-GGA Linear Response
          J. E. Bates and F. Furche, 
          J. Chem. Phys. 137 (2012), 164105.

          spin-flip method 
          M. Kuehn and F. Weigend, 
          Chem. Phys. Chem. 12 (2011), 3331.

          RI-J method 
          R. Bauernschmitt, M. Haeser, O. Treutler, and R. Ahlrichs,
          Chem. Phys. Lett. 264 (1997), 573.

          density functional implementation               
          R. Bauernschmitt and R. Ahlrichs,
          Chem. Phys. Lett. 256 (1996), 454.
          R. Bauernschmitt and R. Ahlrichs,
          J. Chem. Phys. 104 (1996), 9047.

          UHF extension (RPA and CIS)
          C. Ochsenfeld, J. Gauss, and R. Ahlrichs, 
          J. Chem. Phys. 103 (1995), 7401.

          integral direct algorithm                 
          H. Weiss, R. Ahlrichs, and M. Haeser, 
          J. Chem. Phys. 99 (1993), 1262.
                                     




              +--------------------------------------------------+
              | Atomic coordinate, charge and isotop information |
              +--------------------------------------------------+

                    atomic coordinates            atom    charge  isotop
         12.21998874   -1.21319571    0.61820565    c      6.000     0
          9.91266706   -2.31242642    1.46628089    c      6.000     0
          7.61325975   -1.05473191    0.92168049    c      6.000     0
          7.62505112    0.94193227   -0.94088902    c      6.000     0
          9.94086658    2.16563177   -1.48841209    c      6.000     0
         12.23556728    1.03594659   -0.64824968    c      6.000     0
          5.40781189   -1.74783402    2.39796275    c      6.000     0
          5.42296852    1.67880239   -2.40058523    c      6.000     0
          3.31810005    0.06313478   -2.70573040    c      6.000     0
          3.32009214   -0.10729480    2.68851544    c      6.000     0
          1.11811165    0.84441064   -3.88804843    c      6.000     0
          1.02263206    3.30640907   -4.91910881    c      6.000     0
          3.13234950    4.82914614   -4.88548247    c      6.000     0
          5.39782606    4.04202906   -3.68656379    c      6.000     0
          7.69633350    5.48117721   -3.82708883    c      6.000     0
          9.91315804    4.50915657   -2.87369236    c      6.000     0
         14.00313020   -2.15448114    1.03637232    h      1.000     0
         14.03019058    1.90476673   -1.16648560    h      1.000     0
         -0.71260209    3.96490814   -5.82920175    h      1.000     0
          3.06318238    6.68419173   -5.78132797    h      1.000     0
          9.86483188   -4.62899831    2.89209213    c      6.000     0
          7.62725213   -5.58716412    3.81914654    c      6.000     0
          5.35485344   -4.10531639    3.69845861    c      6.000     0
          3.07552148   -4.86055660    4.89352090    c      6.000     0
          0.98318924   -3.31386027    4.90913976    c      6.000     0
          1.10751045   -0.85829786    3.86684643    c      6.000     0
          3.01199327   -6.67077734    5.87408248    h      1.000     0
         -0.75600532   -3.94260273    5.83250520    h      1.000     0
          3.39111938   -1.83932352   -1.91578165    h      1.000     0
          3.41596639    1.79023008    1.88936013    h      1.000     0
        -12.23556728   -1.03594659   -0.64824968    c      6.000     0
         -9.94086658   -2.16563177   -1.48841209    c      6.000     0
         -7.62505112   -0.94193227   -0.94088902    c      6.000     0
         -7.61325975    1.05473191    0.92168049    c      6.000     0
         -9.91266706    2.31242642    1.46628089    c      6.000     0
        -12.21998874    1.21319571    0.61820565    c      6.000     0
         -5.42296852   -1.67880239   -2.40058523    c      6.000     0
         -5.40781189    1.74783402    2.39796275    c      6.000     0
         -3.32009214    0.10729480    2.68851544    c      6.000     0
         -3.31810005   -0.06313478   -2.70573040    c      6.000     0
         -1.10751045    0.85829786    3.86684643    c      6.000     0
         -0.98318924    3.31386027    4.90913976    c      6.000     0
         -3.07552148    4.86055660    4.89352090    c      6.000     0
         -5.35485344    4.10531639    3.69845861    c      6.000     0
         -7.62725213    5.58716412    3.81914654    c      6.000     0
         -9.86483188    4.62899831    2.89209213    c      6.000     0
        -14.03019058   -1.90476673   -1.16648560    h      1.000     0
        -14.00313020    2.15448114    1.03637232    h      1.000     0
          0.75600532    3.94260273    5.83250520    h      1.000     0
         -3.01199327    6.67077734    5.87408248    h      1.000     0
         -9.91315804   -4.50915657   -2.87369236    c      6.000     0
         -7.69633350   -5.48117721   -3.82708883    c      6.000     0
         -5.39782606   -4.04202906   -3.68656379    c      6.000     0
         -3.13234950   -4.82914614   -4.88548247    c      6.000     0
         -1.02263206   -3.30640907   -4.91910881    c      6.000     0
         -1.11811165   -0.84441064   -3.88804843    c      6.000     0
         -3.06318238   -6.68419173   -5.78132797    h      1.000     0
          0.71260209   -3.96490814   -5.82920175    h      1.000     0
         -3.41596639   -1.79023008    1.88936013    h      1.000     0
         -3.39111938    1.83932352   -1.91578165    h      1.000     0
          7.66397921    7.96635502   -5.18271637    c      6.000     0
          6.14820458    9.62430838   -4.83286695    o      8.000     0
          9.49022978    8.09915264   -6.92436718    o      8.000     0
         12.33250548    5.96242663   -3.12746320    c      6.000     0
         14.30535159    5.12386190   -3.88415412    o      8.000     0
         12.05934536    8.33758970   -2.30663786    o      8.000     0
          7.55368248   -8.16702895    4.98824732    c      6.000     0
          6.50734187   -8.72456702    6.92856317    o      8.000     0
          8.74325442   -9.85326329    3.52675452    o      8.000     0
         12.29237969   -6.01892071    3.33826986    c      6.000     0
         13.92715725   -6.36369659    1.79620852    o      8.000     0
         12.47577933   -6.78977870    5.74077769    o      8.000     0
         -7.55368248    8.16702895    4.98824732    c      6.000     0
         -6.50734187    8.72456702    6.92856317    o      8.000     0
         -8.74325442    9.85326329    3.52675452    o      8.000     0
        -12.29237969    6.01892071    3.33826986    c      6.000     0
        -13.92715725    6.36369659    1.79620852    o      8.000     0
        -12.47577933    6.78977870    5.74077769    o      8.000     0
        -12.33250548   -5.96242663   -3.12746320    c      6.000     0
        -14.30535159   -5.12386190   -3.88415412    o      8.000     0
        -12.05934536   -8.33758970   -2.30663786    o      8.000     0
         -7.66397921   -7.96635502   -5.18271637    c      6.000     0
         -6.14820458   -9.62430838   -4.83286695    o      8.000     0
         -9.49022978   -8.09915264   -6.92436718    o      8.000     0
        -14.66151912    8.20965202    6.34659525    c      6.000     0
        -16.38444892    7.08868209    6.00835477    h      1.000     0
        -14.49345201    8.68890864    8.36027992    h      1.000     0
        -14.75952194    9.93919015    5.18786951    h      1.000     0
         -8.84300963   12.35414296    4.47454731    c      6.000     0
         -6.92308394   13.11796430    4.73854478    h      1.000     0
         -9.87490189   13.46399379    3.05468820    h      1.000     0
         -9.83471660   12.40684308    6.30683577    h      1.000     0
        -14.21669249   -9.90534075   -2.53608470    c      6.000     0
        -13.66152743  -11.75861372   -1.78114942    h      1.000     0
        -15.81224766   -9.12612375   -1.44701571    h      1.000     0
        -14.79444503  -10.07153116   -4.53150059    h      1.000     0
         -9.66521841  -10.41246364   -8.25938239    c      6.000     0
        -11.24162371  -10.18705570   -9.59235198    h      1.000     0
         -7.89632155  -10.80465505   -9.28712347    h      1.000     0
        -10.03445315  -11.99045064   -6.94915716    h      1.000     0
          8.84300963  -12.35414296    4.47454731    c      6.000     0
          6.92308394  -13.11796430    4.73854478    h      1.000     0
          9.87490189  -13.46399379    3.05468820    h      1.000     0
          9.83471660  -12.40684308    6.30683577    h      1.000     0
         14.66151912   -8.20965202    6.34659525    c      6.000     0
         16.38444892   -7.08868209    6.00835477    h      1.000     0
         14.49345201   -8.68890864    8.36027992    h      1.000     0
         14.75952194   -9.93919015    5.18786951    h      1.000     0
         14.21669249    9.90534075   -2.53608470    c      6.000     0
         13.66152743   11.75861372   -1.78114942    h      1.000     0
         15.81224766    9.12612375   -1.44701571    h      1.000     0
         14.79444503   10.07153116   -4.53150059    h      1.000     0
          9.66521841   10.41246364   -8.25938239    c      6.000     0
         11.24162371   10.18705570   -9.59235198    h      1.000     0
          7.89632155   10.80465505   -9.28712347    h      1.000     0
         10.03445315   11.99045064   -6.94915716    h      1.000     0
 
       center of nuclear mass  :   -0.00000000    0.00000000    0.00022785
       center of nuclear charge:   -0.00000000    0.00000000    0.00023519

   *************************************************************************
   Auto-generated input                                                     
   *************************************************************************



              +--------------------------------------------------+
              |               basis set information              |
              +--------------------------------------------------+

              we will work with the 1s 3p 5d 7f 9g ... basis set
              ...i.e. with spherical basis functions...

   type   atoms  prim   cont   basis
   ---------------------------------------------------------------------------
    c       60     24     14   def2-SV(P)   [3s2p1d|7s4p1d]
    h       40      4      2   def2-SV(P)   [2s|4s]
    o       16     24     14   def2-SV(P)   [3s2p1d|7s4p1d]
   ---------------------------------------------------------------------------
   total:  116   1984   1144
   ---------------------------------------------------------------------------

   total number of primitive shells          :   28
   total number of contracted shells         :  536
   total number of cartesian basis functions : 1220
   total number of SCF-basis functions       : 1144


 residuum convergence criterium   :  0.10E-04


 integral neglect threshold       :  0.27E-11
 integral storage threshold THIZE :  0.10E-04
 integral storage threshold THIME :         5

 
             FOUND RI-J FLAG !
 
  
 AUXILIARY BASIS SET information:

              we will work with the 1s 3p 5d 7f 9g ... basis set
              ...i.e. with spherical basis functions...

   type   atoms  prim   cont   basis
   ---------------------------------------------------------------------------
    c       60     70     49   def2-SV(P)   [6s4p3d1f1g|12s5p4d2f1g]
    h       40     16     11   def2-SV(P)   [3s1p1d|5s2p1d]
    o       16     70     49   def2-SV(P)   [6s4p3d1f1g|12s5p4d2f1g]
   ---------------------------------------------------------------------------
   total:  116   5960   4164
   ---------------------------------------------------------------------------

   total number of primitive shells          :   56
   total number of contracted shells         : 1340
   total number of cartesian basis functions : 5116
   total number of SCF-basis functions       : 4164

 RPA SINGLET-EXCITATION-CALCULATION 
 
             FOUND DFT-FLAG !
 

 symmetry group of the molecule :   c2 

 the group has the following generators :
   c2(z)

    2 symmetry operations found

 there are 2 real representations :   a    b   

 maximum number of shells which are related by symmetry :  2

 IRREPs of excited states :   a    b   
 

 determining totally symmetric integral contributions 
    - equivalent to irreducible tensor elements - 
 which can be formed within each triple of representations :

             representation triple      contributions

              a     a     a               1
              a     b     b               1
              b     a     b               1
              b     b     a               1

    mo occupation :
   irrep   mo's   occupied
    a      572      133
    b      572      131
 
 number of basis functions   :                   1144
 number of occupied orbitals :                    264
 
  
           ------------------
           density functional
           ------------------
 PBE0 hybrid functional
 exchange:    3/4 (LDA+PBE) + 1/4 HF
 correlation: LDA (PW) + PBE

 iterations will be done with small grid
  
 spherical integration : Lebedev's spherical grid
 spherical gridsize    :                     4
    i.e. gridpoints    :                   434
 value for diffuse not defined
 radial integration    : Chebyshev 2nd kind (scaling 3)
 radial gridsize       :                     6
 integration cells     :                    58
 partition function    : becke
 partition sharpness   :                     3
  
  
           ----------------------
               RI - INFORMATION
           ----------------------

 biggest AO integral is expected to be     4.776656448

 Threshold for integral neglect (rithr2):   0.27E-11
 Threshold for integral neglect (rithr1):   0.27E-11

 Contributions to RI integral batches: 
  neglected integral batches:                115550
  direct contribution:                        23612
  memory contribution:                  4754
 Core memory available (ricore)            500 MiB
 Core memory needed for (P|Q) and Cholesky 67 MiB
 Core memory used for integrals            350 MiB
  
 ****************************************
 Memory allocated for RIDFT 416 MiB
 ****************************************
                                            
  MOs are in ASCII format !


 reading orbital data $scfmo  from file mos
 orbital characterization : scfconv=6
 preparing numerical integration ....
          Overall gridpoints after grid construction =        165051

 Calculating ground state density on molecular grid

 Integral of ground state density: N =   527.9991715775068    


 all orbitals will be included in the transformation

 number of non-frozen orbitals          :  1144
 number of non-frozen occupied orbitals :   264



 dimension of super-tensorspace: 2

          IRREP   tensor space dimension   number of roots

           a            116158                 100
           b            116162                 100

 maximum number of Davidson iterations set to   25


 machine precision: 2.22D-16


 logfile sing_a    will be constructed

 logfile sing_b    will be constructed


                       Nonorthonormal Krylov Space Iteration


 total number of roots to be determined: 200


 maximum core memory set to  8000 MB,
 corresponding to      350 vectors in CAO basis


 maximum number of simultaneously treated vectors (including degeneracy):      216


 Iteration IRREP Converged      Max. Euclidean
                 roots          residual norm

    1       a        0        1.122180216288611D-01
            b        0        1.212412019247402D-01
 
    2       a        0        2.290549020017981D-02
            b        0        2.139279620350394D-02
 
    3       a        0        1.505433455760397D-02
            b        0        1.695448798241432D-02
 
    4       a        0        4.087845849568226D-03
            b        0        5.617481633495732D-03
 
    5       a        2        9.032119242900356D-04
            b        0        1.384001104767540D-03
 
    6       a       44        1.389034033800454D-04
            b       38        2.194670485226122D-04
 
    7       a       93        1.838649866095687D-05
            b       88        2.975991675055835D-05
 
    8       a      100        9.962251384015753D-06
            b      100        9.983136323846730D-06
 

 converged!


 Switching to fine grid

 preparing numerical integration ....
          Overall gridpoints after grid construction =        572168

 Calculating ground state density on molecular grid

 Integral of ground state density: N =   527.9998130016419    



 Iteration IRREP Converged      Max. Euclidean
                 roots          residual norm

    9       a        4        6.837186293685374D-05
            b        7        4.095076246273075D-05
 

 NOTE: Residual norms are larger than 1.00D-05 due to mgrid option!

 Eigenpairs written on logfile sing_a   

 Eigenpairs written on logfile sing_b   



 IRREP   Vector     Eigenvalue           Euclidean residual norm

  a         1    1.151620046907317D-01    1.527040828843449D-05
            2    1.226366772777038D-01    2.672769553398143D-05
            3    1.305697327312044D-01    6.182021862339051D-06
            4    1.314409897440768D-01    1.784547337882502D-05
            5    1.339779231075851D-01    1.645824102683576D-05
            6    1.386097156221341D-01    2.291734445414863D-05
            7    1.400827159297686D-01    6.837186293685374D-05
            8    1.431084089745432D-01    1.893252293959775D-05
            9    1.477253325779524D-01    1.623472810871281D-05
           10    1.500500209153872D-01    2.384008244782708D-05
           11    1.508652039424314D-01    1.378020746151831D-05
           12    1.530185700445016D-01    2.217366081587922D-05
           13    1.545451790191214D-01    1.823610639630529D-05
           14    1.571072691863428D-01    1.510266737744732D-05
           15    1.585868718821394D-01    1.516124756948358D-05
           16    1.616123111231655D-01    1.576887830588804D-05
           17    1.659689394171364D-01    2.124336154090757D-05
           18    1.685694107184361D-01    1.853626858393136D-05
           19    1.698143881152848D-01    2.010734885774937D-05
           20    1.725743606356345D-01    1.956071682708327D-05
           21    1.730769927947585D-01    2.249341583067742D-05
           22    1.737935212885221D-01    1.788967480214523D-05
           23    1.763645205642819D-01    2.157531679008306D-05
           24    1.780289114502082D-01    1.949138285800198D-05
           25    1.789281134661235D-01    2.018788005380981D-05
           26    1.863829340631084D-01    3.069736750794435D-05
           27    1.872080356596297D-01    2.853700620919840D-05
           28    1.891296753190046D-01    1.827745708919182D-05
           29    1.898486287311847D-01    1.165087159144183D-05
           30    1.901309843762039D-01    1.969870552966271D-05
           31    1.906962618371630D-01    1.450733083532357D-05
           32    1.915402991174820D-01    1.132101732864189D-05
           33    1.922329002477553D-01    1.615104642069991D-05
           34    1.931186480697936D-01    2.125807220518481D-05
           35    1.937888922531520D-01    2.333417019841190D-05
           36    1.949481386805454D-01    2.567110669275668D-05
           37    1.954063641903040D-01    2.189646586413926D-05
           38    1.965208173371293D-01    1.917056699072617D-05
           39    1.978819310496122D-01    2.480173707056785D-05
           40    1.982434990422603D-01    2.102703568655809D-05
           41    1.988568197803939D-01    1.567763546016663D-05
           42    1.998395670297023D-01    1.974981477105186D-05
           43    2.001995050104236D-01    2.065546639484887D-05
           44    2.014886208430845D-01    3.392078807788937D-05
           45    2.025114638953887D-01    2.189192797495004D-05
           46    2.037422860781966D-01    8.116196461169756D-06
           47    2.050708586621982D-01    1.448333161175148D-05
           48    2.057911169242305D-01    1.756962710823707D-05
           49    2.062521105960494D-01    1.497235205508008D-05
           50    2.066801391522016D-01    1.475172386156572D-05
           51    2.074364058366844D-01    1.298880977780942D-05
           52    2.081489663771840D-01    1.533976443273215D-05
           53    2.082508475293444D-01    1.851771078411584D-05
           54    2.085895242848682D-01    1.077612458279431D-05
           55    2.090947551515120D-01    1.386139415133075D-05
           56    2.093034979874851D-01    1.446332220913994D-05
           57    2.099029606145492D-01    1.077987873995161D-05
           58    2.101301048813546D-01    1.316306879560435D-05
           59    2.110303070694707D-01    1.392019007428522D-05
           60    2.111598842758965D-01    1.644877906897397D-05
           61    2.123625992741793D-01    1.736334383210981D-05
           62    2.134563912570373D-01    2.112037250000397D-05
           63    2.142515417057429D-01    2.207809796307688D-05
           64    2.147716363208568D-01    1.661117308732470D-05
           65    2.153480836637030D-01    2.412515738364807D-05
           66    2.156964363009468D-01    2.062953505749348D-05
           67    2.161178451721696D-01    1.891512981942489D-05
           68    2.168027645654020D-01    2.046750586461728D-05
           69    2.175323056381291D-01    1.588636246716497D-05
           70    2.176221019562578D-01    2.410081501557098D-05
           71    2.181142174576969D-01    1.944725089229849D-05
           72    2.185806897675646D-01    1.012785036069826D-05
           73    2.187264488529840D-01    1.719758370170303D-05
           74    2.201162167438267D-01    1.667464958948632D-05
           75    2.205410144139181D-01    2.624775887645954D-05
           76    2.212235399516129D-01    2.177303267808002D-05
           77    2.218046005347113D-01    1.280198240912501D-05
           78    2.225583304542653D-01    2.359669253952206D-05
           79    2.228922695104642D-01    2.812108065528366D-05
           80    2.239420103479819D-01    1.227794265058217D-05
           81    2.243460371117535D-01    1.357898798017448D-05
           82    2.246815565658112D-01    1.440125187384151D-05
           83    2.250685450073800D-01    2.111828254752996D-05
           84    2.255283294936564D-01    1.634978736204665D-05
           85    2.259434397062595D-01    2.166964954468674D-05
           86    2.263799519225358D-01    1.451682709835262D-05
           87    2.267718912906938D-01    2.165906735979455D-05
           88    2.274419332661655D-01    1.376250151773232D-05
           89    2.276593805174162D-01    2.170695423627190D-05
           90    2.291578299272938D-01    1.484469089587770D-05
           91    2.292792845372529D-01    1.176303519895261D-05
           92    2.297407591891841D-01    1.003549139820033D-05
           93    2.301368162152555D-01    3.322470959832117D-05
           94    2.311803142366918D-01    1.511677698440596D-05
           95    2.312702615371804D-01    2.084579147359229D-05
           96    2.316006356113124D-01    1.349764449970683D-05
           97    2.324272390307972D-01    2.558178262460139D-05
           98    2.327548482401955D-01    6.758822248523709D-06
           99    2.330634453430417D-01    1.389797120427217D-05
          100    2.332714915405954D-01    9.182071007918937D-06

  b         1    1.128296508916361D-01    2.279164983162659D-05
            2    1.144285103975470D-01    1.571074212797138D-05
            3    1.276897410148890D-01    1.314837706261323D-05
            4    1.312052607998364D-01    7.651818639831617D-06
            5    1.337958906767925D-01    4.095076246273075D-05
            6    1.372045630082296D-01    2.924816708569899D-05
            7    1.373732387890781D-01    2.461965207752521D-05
            8    1.392908677077505D-01    3.084428817779662D-05
            9    1.397192919057565D-01    2.490045819113178D-05
           10    1.481397152527872D-01    2.228431487538233D-05
           11    1.487567644138997D-01    3.616765426118983D-05
           12    1.524229550569967D-01    3.369989602832693D-05
           13    1.543646243389750D-01    1.449084591949073D-05
           14    1.557623552480653D-01    1.622225363723601D-05
           15    1.599130111719005D-01    1.253010006859537D-05
           16    1.614996634422361D-01    1.498813427793878D-05
           17    1.661320936216503D-01    2.063075802924289D-05
           18    1.671702684149107D-01    1.802687904115642D-05
           19    1.702073725974284D-01    2.238470756271057D-05
           20    1.718210916036836D-01    1.906974599534600D-05
           21    1.735026190772693D-01    1.829141379593204D-05
           22    1.746735751833708D-01    2.059139915177860D-05
           23    1.762764556915435D-01    1.451427694899168D-05
           24    1.767151159653249D-01    1.636553836899615D-05
           25    1.800677456774638D-01    1.909019613840801D-05
           26    1.814713245186207D-01    1.691472508157459D-05
           27    1.844121763426966D-01    1.942114482234343D-05
           28    1.869356829027384D-01    2.198340980774633D-05
           29    1.875356507039771D-01    2.262984870400691D-05
           30    1.882377376087256D-01    1.842153414588972D-05
           31    1.903816730959860D-01    9.156819316315822D-06
           32    1.910199624684978D-01    2.164220759458566D-05
           33    1.913419870137580D-01    2.380947879881251D-05
           34    1.917407375943070D-01    1.642156695454103D-05
           35    1.929431937437170D-01    1.399914195300031D-05
           36    1.947348237868295D-01    2.659877453959468D-05
           37    1.948931353759266D-01    2.073953751713179D-05
           38    1.956176902725744D-01    3.040445050076073D-05
           39    1.967289228070896D-01    3.176798106455570D-05
           40    1.977885557086209D-01    2.307764433320801D-05
           41    1.985048210935110D-01    2.196378804787777D-05
           42    1.997358601388131D-01    2.140195112202948D-05
           43    2.006327636543496D-01    2.231226087823249D-05
           44    2.011340708013967D-01    2.145905561887275D-05
           45    2.025021602532429D-01    2.265043588977153D-05
           46    2.033283170493320D-01    1.914595396327712D-05
           47    2.038658134833716D-01    1.493045247877310D-05
           48    2.044970670574382D-01    1.258104417856564D-05
           49    2.063143990109708D-01    1.370942081868687D-05
           50    2.068187222599484D-01    1.368813703684622D-05
           51    2.071613234617695D-01    1.760614676691731D-05
           52    2.082974674697027D-01    1.532017442288129D-05
           53    2.085108089512944D-01    2.152160691321953D-05
           54    2.093919649852188D-01    6.784644680100426D-06
           55    2.095625945359361D-01    1.499269944131007D-05
           56    2.097422575648019D-01    1.643240224357356D-05
           57    2.105069600127205D-01    2.002836195443130D-05
           58    2.107981029066935D-01    1.453954249585960D-05
           59    2.111925129679744D-01    1.705285265275618D-05
           60    2.116986192781088D-01    1.794994984407129D-05
           61    2.118933689692150D-01    1.462176225906908D-05
           62    2.123860864513037D-01    1.625423295396209D-05
           63    2.129770986629070D-01    1.892946859363285D-05
           64    2.136731843199081D-01    1.746176404423824D-05
           65    2.149738815388577D-01    1.771568339993527D-05
           66    2.153185880342089D-01    1.984217929007264D-05
           67    2.158934565582941D-01    1.818599792735612D-05
           68    2.161064529564496D-01    1.498257121850885D-05
           69    2.165949473899959D-01    1.808227032052852D-05
           70    2.171410690475065D-01    1.831685392461614D-05
           71    2.178307224948220D-01    1.615140866679632D-05
           72    2.179929554327677D-01    2.264402177450677D-05
           73    2.185366067182123D-01    6.830735060587378D-06
           74    2.188819491458599D-01    1.555700477776332D-05
           75    2.196188007854157D-01    1.610798850081068D-05
           76    2.199553766547290D-01    1.691324528227607D-05
           77    2.211145071268991D-01    1.474305050681128D-05
           78    2.220439252279135D-01    1.599129149765770D-05
           79    2.229051743945953D-01    2.522612725392744D-05
           80    2.236751616249062D-01    1.814200640460525D-05
           81    2.240481731396316D-01    9.323359783356796D-06
           82    2.242383661196379D-01    1.342529246329430D-05
           83    2.248150543358526D-01    2.022810534165735D-05
           84    2.252772064493310D-01    1.978989995096219D-05
           85    2.262133542307284D-01    1.856407456209901D-05
           86    2.271687729440219D-01    1.852413669239630D-05
           87    2.275988731142496D-01    1.399991163443443D-05
           88    2.280947185306903D-01    2.665614791873786D-05
           89    2.285828115884994D-01    1.153595697659129D-05
           90    2.289437484265263D-01    1.875351678377951D-05
           91    2.294466665348219D-01    8.430024533689534D-06
           92    2.299317072272171D-01    1.051266081882752D-05
           93    2.303086139923194D-01    1.631577196375281D-05
           94    2.305880482559262D-01    2.142575647725012D-05
           95    2.310159003892061D-01    2.578462658530538D-05
           96    2.318941704704007D-01    3.131829621034766D-05
           97    2.322195622101905D-01    1.450508392184548D-05
           98    2.326904875461680D-01    8.283205390632904D-06
           99    2.330833960840530D-01    1.284287481848024D-05
          100    2.333182495222556D-01    1.604921080256667D-05
 




                    Selection rules for point group c2  


 Subduction with respect to c2  :

    Polar vector representation: a, b                        

    Axial vector representation: a, b                        

    Symmetric second rank tensor representation: a, b                        




                            Ground state


 Total energy:                           -3507.641158986000    

 Charge:

               elec          nuc         total

          -528.000000   528.000000     0.000000


 Electric dipole moment:

               elec          nuc         total   

    x        0.000000    -0.000000    -0.000000    Norm:              0.020862
    y        0.000000     0.000000     0.000000
    z       -0.103317     0.124179     0.020862    Norm / debye:      0.053026


 Electric quadrupole moment:

               elec          nuc         total   

   xx   -45214.977279 44921.413509  -293.563770
   yy   -21860.824676 21595.419737  -265.404939    1/3*trace:      -290.500155
   zz    -9809.427505  9496.895750  -312.531755
   xy      -13.674924    26.173683    12.498759
   xz        0.000000     0.000000     0.000000    Anisotropy:       46.427120
   yz        0.000000    -0.000000    -0.000000



 ==============================================================================

                              I R R E P   a   

 ==============================================================================


 Excitation is electric dipole allowed

 Excitation is magnetic dipole allowed

 Excitation is electric quadrupole allowed




                         1 singlet a excitation


 Total energy:                           -3507.525996981309    

 Excitation energy:                      0.1151620046907317    

 Excitation energy / eV:                  3.133718933370897    

 Excitation energy / nm:                  395.6457060847516    

 Excitation energy / cm^(-1):             25275.13845017000    


 Oscillator strength:

    velocity representation:             0.1394573873280903E-03

    length representation:               0.1282505116235420E-03

    mixed representation:                0.1337366115710655E-03


 Rotatory strength:

    velocity representation:            -0.8253991546630718E-05

    velocity rep. / 10^(-40)erg*cm^3:   -0.5332476084888170    

    length representation:              -0.7915398979801941E-05

    length rep. / 10^(-40)erg*cm^3:     -0.5113728978723230    


 Dominant contributions:

      occ. orbital   energy / eV   virt. orbital     energy / eV   |coeff.|^2*100
      133 a              -6.40         134 a              -2.47       60.9
      130 b              -6.38         132 b              -2.26       22.1
      131 b              -6.22         133 b              -1.77       10.0
 

 Change of electron number:

             0.000000


 Electric transition dipole moment (velocity rep.):

    x        0.000000        Norm:                  0.042620
    y        0.000000
    z       -0.042620        Norm / debye:          0.108330


 Electric transition dipole moment (length rep.):

    x        0.000000        Norm:                  0.040871
    y        0.000000
    z       -0.040871        Norm / debye:          0.103886


 Magnetic transition dipole moment / i:

    x        0.000000        Norm:                  0.000194
    y        0.000000
    z        0.000194        Norm / Bohr mag.:      0.053078


 Electric quadrupole transition moment:

   xx       -5.751200
   yy       -2.517827        1/3*trace:            -2.903498
   zz       -0.441466
   xy        0.404849
   xz        0.000000        Anisotropy:            4.687359
   yz        0.000000




                         2 singlet a excitation


 Total energy:                           -3507.518522308722    

 Excitation energy:                      0.1226366772777038    

 Excitation energy / eV:                  3.337115210376035    

 Excitation energy / nm:                  371.5312064173459    

 Excitation energy / cm^(-1):             26915.63945579912    


 Oscillator strength:

    velocity representation:             0.8772432022986028E-01

    length representation:               0.9001063325958168E-01

    mixed representation:                0.8886012388105284E-01


 Rotatory strength:

    velocity representation:            -0.8557970090605816E-02

    velocity rep. / 10^(-40)erg*cm^3:    -552.8860865137674    

    length representation:              -0.8668773726931950E-02

    length rep. / 10^(-40)erg*cm^3:      -560.0445350957622    


 Dominant contributions:

      occ. orbital   energy / eV   virt. orbital     energy / eV   |coeff.|^2*100
      131 b              -6.22         132 b              -2.26       76.5
      132 a              -6.59         134 a              -2.47       12.6
      133 a              -6.40         135 a              -1.94        5.9
 

 Change of electron number:

             0.000000


 Electric transition dipole moment (velocity rep.):

    x        0.000000        Norm:                  1.035847
    y        0.000000
    z       -1.035847        Norm / debye:          2.632879


 Electric transition dipole moment (length rep.):

    x        0.000000        Norm:                  1.049258
    y        0.000000
    z       -1.049258        Norm / debye:          2.666968


 Magnetic transition dipole moment / i:

    x        0.000000        Norm:                  0.008262
    y        0.000000
    z        0.008262        Norm / Bohr mag.:      2.264331


 Electric quadrupole transition moment:

   xx        1.535195
   yy       -0.796529        1/3*trace:             0.410227
   zz        0.492016
   xy        7.735792
   xz        0.000000        Anisotropy:           13.550652
   yz        0.000000




                         3 singlet a excitation


 Total energy:                           -3507.510589253269    

 Excitation energy:                      0.1305697327312044    

 Excitation energy / eV:                  3.552984725159819    

 Excitation energy / nm:                  348.9579989705453    

 Excitation energy / cm^(-1):             28656.74387177879    


 Oscillator strength:

    velocity representation:             0.1073321551378283E-03

    length representation:               0.1129834171791424E-03

    mixed representation:                0.1101215404027463E-03


 Rotatory strength:

    velocity representation:            -0.5714230933389060E-05

    velocity rep. / 10^(-40)erg*cm^3:   -0.3691668403545148    

    length representation:              -0.5862734348283377E-05

    length rep. / 10^(-40)erg*cm^3:     -0.3787608762094633    


 Dominant contributions:

      occ. orbital   energy / eV   virt. orbital     energy / eV   |coeff.|^2*100
      130 b              -6.38         132 b              -2.26       65.9
      133 a              -6.40         134 a              -2.47       29.5
 

 Change of electron number:

            -0.000000


 Electric transition dipole moment (velocity rep.):

    x        0.000000        Norm:                  0.035115
    y        0.000000
    z        0.035115        Norm / debye:          0.089253


 Electric transition dipole moment (length rep.):

    x        0.000000        Norm:                  0.036027
    y        0.000000
    z        0.036027        Norm / debye:          0.091573


 Magnetic transition dipole moment / i:

    x        0.000000        Norm:                  0.000163
    y        0.000000
    z       -0.000163        Norm / Bohr mag.:      0.044600


 Electric quadrupole transition moment:

   xx        0.479684
   yy       -0.171890        1/3*trace:             0.084519
   zz       -0.054237
   xy       -0.419157
   xz        0.000000        Anisotropy:            0.942766
   yz        0.000000




                         4 singlet a excitation


 Total energy:                           -3507.509717996256    

 Excitation energy:                      0.1314409897440768    

 Excitation energy / eV:                  3.576692844902980    

 Excitation energy / nm:                  346.6449297796258    

 Excitation energy / cm^(-1):             28847.96268292373    


 Oscillator strength:

    velocity representation:             0.1179728874509470E-01

    length representation:               0.1211091403778362E-01

    mixed representation:                0.1195307282127713E-01


 Rotatory strength:

    velocity representation:            -0.8347767336025747E-03

    velocity rep. / 10^(-40)erg*cm^3:    -53.93059761460341    

    length representation:              -0.8458000225185926E-03

    length rep. / 10^(-40)erg*cm^3:      -54.64275517121580    


 Dominant contributions:

      occ. orbital   energy / eV   virt. orbital     energy / eV   |coeff.|^2*100
      132 a              -6.59         134 a              -2.47       75.5
      131 b              -6.22         132 b              -2.26       16.9
 

 Change of electron number:

            -0.000000


 Electric transition dipole moment (velocity rep.):

    x        0.000000        Norm:                  0.366920
    y        0.000000
    z       -0.366920        Norm / debye:          0.932625


 Electric transition dipole moment (length rep.):

    x        0.000000        Norm:                  0.371765
    y        0.000000
    z       -0.371765        Norm / debye:          0.944940


 Magnetic transition dipole moment / i:

    x        0.000000        Norm:                  0.002275
    y        0.000000
    z        0.002275        Norm / Bohr mag.:      0.623539


 Electric quadrupole transition moment:

   xx        0.448091
   yy       -0.390107        1/3*trace:             0.079497
   zz        0.180508
   xy        4.461609
   xz        0.000000        Anisotropy:            7.763232
   yz        0.000000




                         5 singlet a excitation


 Total energy:                           -3507.507181062892    

 Excitation energy:                      0.1339779231075851    

 Excitation energy / eV:                  3.645726343714297    

 Excitation energy / nm:                  340.0810491995188    

 Excitation energy / cm^(-1):             29404.75519599024    


 Oscillator strength:

    velocity representation:             0.2945214852994894E-04

    length representation:               0.2715656237743635E-04

    mixed representation:                0.2828107333011034E-04


 Rotatory strength:

    velocity representation:            -0.6778909737595120E-06

    velocity rep. / 10^(-40)erg*cm^3:   -0.4379502190318731E-01

    length representation:              -0.6509366988699587E-06

    length rep. / 10^(-40)erg*cm^3:     -0.4205364592258412E-01


 Dominant contributions:

      occ. orbital   energy / eV   virt. orbital     energy / eV   |coeff.|^2*100
      129 b              -6.60         132 b              -2.26       71.7
      131 b              -6.22         133 b              -1.77        9.6
      132 a              -6.59         135 a              -1.94        7.3
      131 a              -7.24         134 a              -2.47        4.3
 

 Change of electron number:

            -0.000000


 Electric transition dipole moment (velocity rep.):

    x        0.000000        Norm:                  0.018159
    y        0.000000
    z       -0.018159        Norm / debye:          0.046155


 Electric transition dipole moment (length rep.):

    x        0.000000        Norm:                  0.017437
    y        0.000000
    z       -0.017437        Norm / debye:          0.044320


 Magnetic transition dipole moment / i:

    x        0.000000        Norm:                  0.000037
    y        0.000000
    z        0.000037        Norm / Bohr mag.:      0.010231


 Electric quadrupole transition moment:

   xx        4.639433
   yy       -1.356572        1/3*trace:             0.627457
   zz       -1.400491
   xy        0.284685
   xz        0.000000        Anisotropy:            6.038251
   yz        0.000000




                         6 singlet a excitation


 Total energy:                           -3507.502549270378    

 Excitation energy:                      0.1386097156221341    

 Excitation energy / eV:                  3.771763884804930    

 Excitation energy / nm:                  328.7168756929773    

 Excitation energy / cm^(-1):             30421.31614759991    


 Oscillator strength:

    velocity representation:             0.5445624758982338E-01

    length representation:               0.5351833247202925E-01

    mixed representation:                0.5398525320577194E-01


 Rotatory strength:

    velocity representation:            -0.2626614537807418E-02

    velocity rep. / 10^(-40)erg*cm^3:    -169.6919499850354    

    length representation:              -0.2603896837798166E-02

    length rep. / 10^(-40)erg*cm^3:      -168.2242771467654    


 Dominant contributions:

      occ. orbital   energy / eV   virt. orbital     energy / eV   |coeff.|^2*100
      133 a              -6.40         135 a              -1.94       35.8
      133 a              -6.40         136 a              -1.81       33.6
      129 b              -6.60         133 b              -1.77       12.2
      130 b              -6.38         134 b              -1.44        8.1
      131 b              -6.22         132 b              -2.26        2.6
 

 Change of electron number:

             0.000000


 Electric transition dipole moment (velocity rep.):

    x        0.000000        Norm:                  0.767667
    y        0.000000
    z       -0.767667        Norm / debye:          1.951229


 Electric transition dipole moment (length rep.):

    x        0.000000        Norm:                  0.761027
    y        0.000000
    z       -0.761027        Norm / debye:          1.934352


 Magnetic transition dipole moment / i:

    x        0.000000        Norm:                  0.003422
    y        0.000000
    z        0.003422        Norm / Bohr mag.:      0.937753


 Electric quadrupole transition moment:

   xx       -0.116678
   yy       -0.202983        1/3*trace:            -0.074085
   zz        0.097406
   xy        8.248913
   xz        0.000000        Anisotropy:           14.290047
   yz        0.000000




                         7 singlet a excitation


 Total energy:                           -3507.501076270070    

 Excitation energy:                      0.1400827159297686    

 Excitation energy / eV:                  3.811846279734505    

 Excitation energy / nm:                  325.2603460575641    

 Excitation energy / cm^(-1):             30744.60234613898    


 Oscillator strength:

    velocity representation:             0.2057298545178285    

    length representation:               0.2095818749329622    

    mixed representation:                0.2076469326513928    


 Rotatory strength:

    velocity representation:            -0.2179804284527044E-01

    velocity rep. / 10^(-40)erg*cm^3:    -1408.258556034268    

    length representation:              -0.2200116626355654E-01

    length rep. / 10^(-40)erg*cm^3:      -1421.381307180452    


 Dominant contributions:

      occ. orbital   energy / eV   virt. orbital     energy / eV   |coeff.|^2*100
      133 a              -6.40         136 a              -1.81       41.5
      133 a              -6.40         135 a              -1.94       23.7
      130 b              -6.38         133 b              -1.77       21.7
      132 a              -6.59         134 a              -2.47        6.2
 

 Change of electron number:

             0.000000


 Electric transition dipole moment (velocity rep.):

    x        0.000000        Norm:                  1.484233
    y        0.000000
    z        1.484233        Norm / debye:          3.772572


 Electric transition dipole moment (length rep.):

    x        0.000000        Norm:                  1.498063
    y        0.000000
    z        1.498063        Norm / debye:          3.807726


 Magnetic transition dipole moment / i:

    x        0.000000        Norm:                  0.014686
    y        0.000000
    z       -0.014686        Norm / Bohr mag.:      4.025132


 Electric quadrupole transition moment:

   xx       -0.815079
   yy        0.354838        1/3*trace:            -0.196936
   zz       -0.130567
   xy       -9.758195
   xz        0.000000        Anisotropy:           16.932322
   yz        0.000000




                         8 singlet a excitation


 Total energy:                           -3507.498050577025    

 Excitation energy:                      0.1431084089745432    

 Excitation energy / eV:                  3.894179611864679    

 Excitation energy / nm:                  318.3834757614070    

 Excitation energy / cm^(-1):             31408.66520975244    


 Oscillator strength:

    velocity representation:             0.1158180127983918E-02

    length representation:               0.1188072168309980E-02

    mixed representation:                0.1173030935631019E-02


 Rotatory strength:

    velocity representation:            -0.8871165696091206E-04

    velocity rep. / 10^(-40)erg*cm^3:    -5.731200311053954    

    length representation:              -0.8984916547254177E-04

    length rep. / 10^(-40)erg*cm^3:      -5.804688839608337    


 Dominant contributions:

      occ. orbital   energy / eV   virt. orbital     energy / eV   |coeff.|^2*100
      131 b              -6.22         133 b              -1.77       69.5
      129 b              -6.60         132 b              -2.26       12.5
      130 b              -6.38         132 b              -2.26        7.3
      131 b              -6.22         134 b              -1.44        3.2
 

 Change of electron number:

            -0.000000


 Electric transition dipole moment (velocity rep.):

    x        0.000000        Norm:                  0.110180
    y        0.000000
    z        0.110180        Norm / debye:          0.280051


 Electric transition dipole moment (length rep.):

    x        0.000000        Norm:                  0.111592
    y        0.000000
    z        0.111592        Norm / debye:          0.283642


 Magnetic transition dipole moment / i:

    x        0.000000        Norm:                  0.000805
    y        0.000000
    z       -0.000805        Norm / Bohr mag.:      0.220670


 Electric quadrupole transition moment:

   xx       13.014247
   yy        4.016148        1/3*trace:             5.865112
   zz        0.564942
   xy       -1.228896
   xz        0.000000        Anisotropy:           11.334084
   yz        0.000000




                         9 singlet a excitation


 Total energy:                           -3507.493433653422    

 Excitation energy:                      0.1477253325779524    

 Excitation energy / eV:                  4.019812549123669    

 Excitation energy / nm:                  308.4328995228826    

 Excitation energy / cm^(-1):             32421.96281258078    


 Oscillator strength:

    velocity representation:             0.8735799505372253E-05

    length representation:               0.3066229182925906E-04

    mixed representation:                0.1636641786695002E-04


 Rotatory strength:

    velocity representation:            -0.7121334182289031E-05

    velocity rep. / 10^(-40)erg*cm^3:   -0.4600724874143353    

    length representation:              -0.1334173602838091E-04

    length rep. / 10^(-40)erg*cm^3:     -0.8619404066541998    


 Dominant contributions:

      occ. orbital   energy / eV   virt. orbital     energy / eV   |coeff.|^2*100
      130 b              -6.38         133 b              -1.77       59.9
      133 a              -6.40         135 a              -1.94       25.0
      129 b              -6.60         133 b              -1.77        7.9
 

 Change of electron number:

             0.000000


 Electric transition dipole moment (velocity rep.):

    x        0.000000        Norm:                  0.009418
    y        0.000000
    z        0.009418        Norm / debye:          0.023939


 Electric transition dipole moment (length rep.):

    x        0.000000        Norm:                  0.017645
    y        0.000000
    z        0.017645        Norm / debye:          0.044849


 Magnetic transition dipole moment / i:

    x        0.000000        Norm:                  0.000756
    y        0.000000
    z       -0.000756        Norm / Bohr mag.:      0.207232


 Electric quadrupole transition moment:

   xx        0.327759
   yy        0.080677        1/3*trace:             0.151913
   zz        0.047305
   xy        0.579092
   xz        0.000000        Anisotropy:            1.037521
   yz        0.000000




                        10 singlet a excitation


 Total energy:                           -3507.491108965085    

 Excitation energy:                      0.1500500209153872    

 Excitation energy / eV:                  4.083070564445388    

 Excitation energy / nm:                  303.6544239183615    

 Excitation energy / cm^(-1):             32932.17292693189    


 Oscillator strength:

    velocity representation:             0.5423671547855840E-03

    length representation:               0.7521375873562947E-03

    mixed representation:                0.6386976775139605E-03


 Rotatory strength:

    velocity representation:            -0.2121435764798033E-04

    velocity rep. / 10^(-40)erg*cm^3:    -1.370549681024295    

    length representation:              -0.2498226679134389E-04

    length rep. / 10^(-40)erg*cm^3:      -1.613974759466728    


 Dominant contributions:

      occ. orbital   energy / eV   virt. orbital     energy / eV   |coeff.|^2*100
      132 a              -6.59         136 a              -1.81       63.4
      131 b              -6.22         134 b              -1.44       24.4
      128 b              -7.35         133 b              -1.77        2.4
 

 Change of electron number:

            -0.000000


 Electric transition dipole moment (velocity rep.):

    x        0.000000        Norm:                  0.073633
    y        0.000000
    z       -0.073633        Norm / debye:          0.187159


 Electric transition dipole moment (length rep.):

    x        0.000000        Norm:                  0.086711
    y        0.000000
    z       -0.086711        Norm / debye:          0.220400


 Magnetic transition dipole moment / i:

    x        0.000000        Norm:                  0.000288
    y        0.000000
    z        0.000288        Norm / Bohr mag.:      0.078962


 Electric quadrupole transition moment:

   xx      -13.162033
   yy        3.343213        1/3*trace:            -2.358944
   zz        2.741989
   xy        0.382010
   xz        0.000000        Anisotropy:           16.226493
   yz        0.000000




                        11 singlet a excitation


 Total energy:                           -3507.490293782058    

 Excitation energy:                      0.1508652039424314    

 Excitation energy / eV:                  4.105252832745347    

 Excitation energy / nm:                  302.0136616617473    

 Excitation energy / cm^(-1):             33111.08492074533    


 Oscillator strength:

    velocity representation:             0.1153278980643627E-02

    length representation:               0.1183683459876351E-02

    mixed representation:                0.1168382323561479E-02


 Rotatory strength:

    velocity representation:            -0.6954971462027893E-04

    velocity rep. / 10^(-40)erg*cm^3:    -4.493246544150202    

    length representation:              -0.7046053776661127E-04

    length rep. / 10^(-40)erg*cm^3:      -4.552090106297565    


 Dominant contributions:

      occ. orbital   energy / eV   virt. orbital     energy / eV   |coeff.|^2*100
      132 a              -6.59         135 a              -1.94       46.1
      131 a              -7.24         134 a              -2.47       29.4
      129 b              -6.60         132 b              -2.26        8.6
      132 a              -6.59         136 a              -1.81        5.0
      131 b              -6.22         133 b              -1.77        4.2
 

 Change of electron number:

            -0.000000


 Electric transition dipole moment (velocity rep.):

    x        0.000000        Norm:                  0.107082
    y        0.000000
    z        0.107082        Norm / debye:          0.272178


 Electric transition dipole moment (length rep.):

    x        0.000000        Norm:                  0.108485
    y        0.000000
    z        0.108485        Norm / debye:          0.275743


 Magnetic transition dipole moment / i:

    x        0.000000        Norm:                  0.000649
    y        0.000000
    z       -0.000649        Norm / Bohr mag.:      0.178009


 Electric quadrupole transition moment:

   xx        7.863140
   yy        1.367248        1/3*trace:             2.914099
   zz       -0.488091
   xy       -0.925066
   xz        0.000000        Anisotropy:            7.762617
   yz        0.000000




                        12 singlet a excitation


 Total energy:                           -3507.488140415956    

 Excitation energy:                      0.1530185700445016    

 Excitation energy / eV:                  4.163848930847829    

 Excitation energy / nm:                  297.7635501805371    

 Excitation energy / cm^(-1):             33583.69415075908    


 Oscillator strength:

    velocity representation:             0.1685936224482520    

    length representation:               0.1684638047788986    

    mixed representation:                0.1685287011137558    


 Rotatory strength:

    velocity representation:            -0.1146512518344617E-01

    velocity rep. / 10^(-40)erg*cm^3:    -740.7023075512132    

    length representation:              -0.1146071024048293E-01

    length rep. / 10^(-40)erg*cm^3:      -740.4170809716293    


 Dominant contributions:

      occ. orbital   energy / eV   virt. orbital     energy / eV   |coeff.|^2*100
      129 b              -6.60         133 b              -1.77       59.6
      133 a              -6.40         136 a              -1.81       11.0
      130 b              -6.38         133 b              -1.77       10.5
      128 b              -7.35         132 b              -2.26        4.5
      133 a              -6.40         135 a              -1.94        3.6
      132 a              -6.59         134 a              -2.47        3.3
 

 Change of electron number:

            -0.000000


 Electric transition dipole moment (velocity rep.):

    x        0.000000        Norm:                  1.285565
    y        0.000000
    z        1.285565        Norm / debye:          3.267606


 Electric transition dipole moment (length rep.):

    x        0.000000        Norm:                  1.285070
    y        0.000000
    z        1.285070        Norm / debye:          3.266347


 Magnetic transition dipole moment / i:

    x        0.000000        Norm:                  0.008918
    y        0.000000
    z       -0.008918        Norm / Bohr mag.:      2.444271


 Electric quadrupole transition moment:

   xx       -0.323394
   yy        0.022942        1/3*trace:            -0.208559
   zz       -0.325224
   xy      -12.120924
   xz        0.000000        Anisotropy:           20.996928
   yz        0.000000




                        13 singlet a excitation


 Total energy:                           -3507.486613806981    

 Excitation energy:                      0.1545451790191214    

 Excitation energy / eV:                  4.205390092452885    

 Excitation energy / nm:                  294.8222192965501    

 Excitation energy / cm^(-1):             33918.74609168706    


 Oscillator strength:

    velocity representation:             0.1858770664781635E-03

    length representation:               0.2454672482224273E-03

    mixed representation:                0.2136041479373750E-03


 Rotatory strength:

    velocity representation:            -0.2157751840920427E-05

    velocity rep. / 10^(-40)erg*cm^3:   -0.1394011615329121    

    length representation:              -0.2479621354979025E-05

    length rep. / 10^(-40)erg*cm^3:     -0.1601954823954368    


 Dominant contributions:

      occ. orbital   energy / eV   virt. orbital     energy / eV   |coeff.|^2*100
      131 a              -7.24         134 a              -2.47       48.3
      132 a              -6.59         135 a              -1.94       34.1
      131 b              -6.22         134 b              -1.44        9.2
 

 Change of electron number:

             0.000000


 Electric transition dipole moment (velocity rep.):

    x        0.000000        Norm:                  0.042475
    y        0.000000
    z        0.042475        Norm / debye:          0.107961


 Electric transition dipole moment (length rep.):

    x        0.000000        Norm:                  0.048811
    y        0.000000
    z        0.048811        Norm / debye:          0.124065


 Magnetic transition dipole moment / i:

    x        0.000000        Norm:                  0.000051
    y        0.000000
    z       -0.000051        Norm / Bohr mag.:      0.013923


 Electric quadrupole transition moment:

   xx       14.836585
   yy        0.049105        1/3*trace:             4.426928
   zz       -1.604907
   xy       -0.648855
   xz        0.000000        Anisotropy:           15.720275
   yz        0.000000




                        14 singlet a excitation


 Total energy:                           -3507.484051716814    

 Excitation energy:                      0.1571072691863428    

 Excitation energy / eV:                  4.275108143016407    

 Excitation energy / nm:                  290.0142870280428    

 Excitation energy / cm^(-1):             34481.05988495808    


 Oscillator strength:

    velocity representation:             0.1418519470390612E-03

    length representation:               0.2203898710596046E-03

    mixed representation:                0.1768127040613670E-03


 Rotatory strength:

    velocity representation:            -0.5245166456974456E-06

    velocity rep. / 10^(-40)erg*cm^3:   -0.3388630159730555E-01

    length representation:              -0.6537887451444397E-06

    length rep. / 10^(-40)erg*cm^3:     -0.4223790184852910E-01


 Dominant contributions:

      occ. orbital   energy / eV   virt. orbital     energy / eV   |coeff.|^2*100
      131 b              -6.22         134 b              -1.44       56.4
      132 a              -6.59         136 a              -1.81       25.1
      131 a              -7.24         134 a              -2.47       12.4
 

 Change of electron number:

            -0.000000


 Electric transition dipole moment (velocity rep.):

    x        0.000000        Norm:                  0.036801
    y        0.000000
    z       -0.036801        Norm / debye:          0.093541


 Electric transition dipole moment (length rep.):

    x        0.000000        Norm:                  0.045872
    y        0.000000
    z       -0.045872        Norm / debye:          0.116595


 Magnetic transition dipole moment / i:

    x        0.000000        Norm:                  0.000014
    y        0.000000
    z        0.000014        Norm / Bohr mag.:      0.003906


 Electric quadrupole transition moment:

   xx      -13.195055
   yy        0.332364        1/3*trace:            -3.885636
   zz        1.205781
   xy        0.280983
   xz        0.000000        Anisotropy:           13.993065
   yz        0.000000




                        15 singlet a excitation


 Total energy:                           -3507.482572114118    

 Excitation energy:                      0.1585868718821394    

 Excitation energy / eV:                  4.315370198145929    

 Excitation energy / nm:                  287.3084771724506    

 Excitation energy / cm^(-1):             34805.79514020075    


 Oscillator strength:

    velocity representation:             0.1600472587788197E-01

    length representation:               0.1496421409661312E-01

    mixed representation:                0.1547572759498662E-01


 Rotatory strength:

    velocity representation:            -0.9054750088703889E-03

    velocity rep. / 10^(-40)erg*cm^3:    -58.49804670851906    

    length representation:              -0.8755466784165041E-03

    length rep. / 10^(-40)erg*cm^3:      -56.56453241420026    


 Dominant contributions:

      occ. orbital   energy / eV   virt. orbital     energy / eV   |coeff.|^2*100
      130 b              -6.38         134 b              -1.44       67.3
      128 b              -7.35         132 b              -2.26        8.3
      129 b              -6.60         133 b              -1.77        5.9
      133 a              -6.40         136 a              -1.81        4.2
      130 a              -7.74         134 a              -2.47        3.0
      133 a              -6.40         135 a              -1.94        2.7
 

 Change of electron number:

             0.000000


 Electric transition dipole moment (velocity rep.):

    x        0.000000        Norm:                  0.389078
    y        0.000000
    z       -0.389078        Norm / debye:          0.988944


 Electric transition dipole moment (length rep.):

    x        0.000000        Norm:                  0.376217
    y        0.000000
    z       -0.376217        Norm / debye:          0.956257


 Magnetic transition dipole moment / i:

    x        0.000000        Norm:                  0.002327
    y        0.000000
    z        0.002327        Norm / Bohr mag.:      0.637830


 Electric quadrupole transition moment:

   xx        0.778573
   yy       -0.297092        1/3*trace:             0.147560
   zz       -0.038801
   xy        6.912000
   xz        0.000000        Anisotropy:           12.011376
   yz        0.000000




                        16 singlet a excitation


 Total energy:                           -3507.479546674877    

 Excitation energy:                      0.1616123111231655    

 Excitation energy / eV:                  4.397696623921754    

 Excitation energy / nm:                  281.9299615440556    

 Excitation energy / cm^(-1):             35469.80230033025    


 Oscillator strength:

    velocity representation:             0.5175793489026500E-02

    length representation:               0.5110304894902711E-02

    mixed representation:                0.5142944954204517E-02


 Rotatory strength:

    velocity representation:            -0.4378188649832230E-03

    velocity rep. / 10^(-40)erg*cm^3:    -28.28520739143388    

    length representation:              -0.4350402169821747E-03

    length rep. / 10^(-40)erg*cm^3:      -28.10569334746856    


 Dominant contributions:

      occ. orbital   energy / eV   virt. orbital     energy / eV   |coeff.|^2*100
      128 b              -7.35         132 b              -2.26       46.7
      130 b              -6.38         134 b              -1.44       18.5
      130 a              -7.74         134 a              -2.47       16.8
      129 b              -6.60         133 b              -1.77        5.8
      131 a              -7.24         135 a              -1.94        2.5
 

 Change of electron number:

             0.000000


 Electric transition dipole moment (velocity rep.):

    x        0.000000        Norm:                  0.219178
    y        0.000000
    z        0.219178        Norm / debye:          0.557099


 Electric transition dipole moment (length rep.):

    x        0.000000        Norm:                  0.217787
    y        0.000000
    z        0.217787        Norm / debye:          0.553563


 Magnetic transition dipole moment / i:

    x        0.000000        Norm:                  0.001998
    y        0.000000
    z       -0.001998        Norm / Bohr mag.:      0.547472


 Electric quadrupole transition moment:

   xx        1.665166
   yy        0.788893        1/3*trace:             0.804416
   zz       -0.040811
   xy       -5.537442
   xz        0.000000        Anisotropy:            9.704283
   yz        0.000000




                        17 singlet a excitation


 Total energy:                           -3507.475190046583    

 Excitation energy:                      0.1659689394171364    

 Excitation energy / eV:                  4.516246562394428    

 Excitation energy / nm:                  274.5293958014867    

 Excitation energy / cm^(-1):             36425.97168624669    


 Oscillator strength:

    velocity representation:             0.2478057382713778E-02

    length representation:               0.1442990978954870E-02

    mixed representation:                0.1890982403035125E-02


 Rotatory strength:

    velocity representation:            -0.2689158660226986E-03

    velocity rep. / 10^(-40)erg*cm^3:    -17.37326015312417    

    length representation:              -0.2052071812755958E-03

    length rep. / 10^(-40)erg*cm^3:      -13.25737227155393    


 Dominant contributions:

      occ. orbital   energy / eV   virt. orbital     energy / eV   |coeff.|^2*100
      129 a              -7.91         134 a              -2.47       53.0
      127 b              -7.91         132 b              -2.26       22.7
      126 b              -7.97         132 b              -2.26        5.4
      129 a              -7.91         136 a              -1.81        2.5
      126 b              -7.97         134 b              -1.44        2.2
      127 b              -7.91         134 b              -1.44        2.0
      128 a              -8.07         134 a              -2.47        1.3
      129 a              -7.91         135 a              -1.94        1.3
 

 Change of electron number:

             0.000000


 Electric transition dipole moment (velocity rep.):

    x        0.000000        Norm:                  0.149654
    y        0.000000
    z       -0.149654        Norm / debye:          0.380385


 Electric transition dipole moment (length rep.):

    x        0.000000        Norm:                  0.114199
    y        0.000000
    z       -0.114199        Norm / debye:          0.290268


 Magnetic transition dipole moment / i:

    x        0.000000        Norm:                  0.001797
    y        0.000000
    z        0.001797        Norm / Bohr mag.:      0.492485


 Electric quadrupole transition moment:

   xx        3.405741
   yy       -2.343053        1/3*trace:            -0.015406
   zz       -1.108907
   xy       -0.624228
   xz        0.000000        Anisotropy:            5.352184
   yz        0.000000




                        18 singlet a excitation


 Total energy:                           -3507.472589575281    

 Excitation energy:                      0.1685694107184361    

 Excitation energy / eV:                  4.587009017202810    

 Excitation energy / nm:                  270.2943106095632    

 Excitation energy / cm^(-1):             36996.70916474539    


 Oscillator strength:

    velocity representation:             0.2811346937980754E-02

    length representation:               0.2028018634766670E-02

    mixed representation:                0.2387773854245662E-02


 Rotatory strength:

    velocity representation:            -0.2192263503517198E-03

    velocity rep. / 10^(-40)erg*cm^3:    -14.16307811588510    

    length representation:              -0.1861964955159580E-03

    length rep. / 10^(-40)erg*cm^3:      -12.02919040829562    


 Dominant contributions:

      occ. orbital   energy / eV   virt. orbital     energy / eV   |coeff.|^2*100
      129 b              -6.60         134 b              -1.44       80.7
      132 a              -6.59         137 a              -0.82        2.5
      130 a              -7.74         134 a              -2.47        2.4
      128 a              -8.07         134 a              -2.47        2.4
      126 b              -7.97         132 b              -2.26        1.9
      129 b              -6.60         133 b              -1.77        1.7
 

 Change of electron number:

            -0.000000


 Electric transition dipole moment (velocity rep.):

    x        0.000000        Norm:                  0.158166
    y        0.000000
    z       -0.158166        Norm / debye:          0.402021


 Electric transition dipole moment (length rep.):

    x        0.000000        Norm:                  0.134336
    y        0.000000
    z       -0.134336        Norm / debye:          0.341450


 Magnetic transition dipole moment / i:

    x        0.000000        Norm:                  0.001386
    y        0.000000
    z        0.001386        Norm / Bohr mag.:      0.379878


 Electric quadrupole transition moment:

   xx        0.163108
   yy       -0.028471        1/3*trace:             0.220379
   zz        0.526500
   xy       -6.355122
   xz        0.000000        Anisotropy:           11.018216
   yz        0.000000




                        19 singlet a excitation


 Total energy:                           -3507.471344597885    

 Excitation energy:                      0.1698143881152848    

 Excitation energy / eV:                  4.620886590371156    

 Excitation energy / nm:                  268.3126745954390    

 Excitation energy / cm^(-1):             37269.95011914861    


 Oscillator strength:

    velocity representation:             0.8211084524781186E-02

    length representation:               0.1198479381424268E-01

    mixed representation:                0.9920088458316358E-02


 Rotatory strength:

    velocity representation:            -0.8638775647209213E-03

    velocity rep. / 10^(-40)erg*cm^3:    -55.81065146627347    

    length representation:              -0.1043679654413839E-02

    length rep. / 10^(-40)erg*cm^3:      -67.42673246034452    


 Dominant contributions:

      occ. orbital   energy / eV   virt. orbital     energy / eV   |coeff.|^2*100
      130 a              -7.74         134 a              -2.47       36.3
      128 b              -7.35         132 b              -2.26       15.0
      128 a              -8.07         134 a              -2.47       11.9
      126 b              -7.97         132 b              -2.26        9.8
      129 b              -6.60         134 b              -1.44        5.2
      127 b              -7.91         132 b              -2.26        3.0
      125 b              -8.16         132 b              -2.26        2.0
      127 b              -7.91         134 b              -1.44        1.9
      131 a              -7.24         136 a              -1.81        1.2
      129 a              -7.91         134 a              -2.47        1.2
      127 a              -8.19         134 a              -2.47        1.1
      129 a              -7.91         136 a              -1.81        0.9
      130 a              -7.74         136 a              -1.81        0.8
 

 Change of electron number:

            -0.000000


 Electric transition dipole moment (velocity rep.):

    x        0.000000        Norm:                  0.269314
    y        0.000000
    z       -0.269314        Norm / debye:          0.684533


 Electric transition dipole moment (length rep.):

    x        0.000000        Norm:                  0.325367
    y        0.000000
    z       -0.325367        Norm / debye:          0.827007


 Magnetic transition dipole moment / i:

    x        0.000000        Norm:                  0.003208
    y        0.000000
    z        0.003208        Norm / Bohr mag.:      0.879140


 Electric quadrupole transition moment:

   xx       -1.836371
   yy        0.850125        1/3*trace:            -0.192665
   zz        0.408250
   xy        0.205899
   xz        0.000000        Anisotropy:            2.520437
   yz        0.000000




                        20 singlet a excitation


 Total energy:                           -3507.468584625364    

 Excitation energy:                      0.1725743606356345    

 Excitation energy / eV:                  4.695989296040703    

 Excitation energy / nm:                  264.0215643400259    

 Excitation energy / cm^(-1):             37875.69406879450    


 Oscillator strength:

    velocity representation:             0.3055241322501843E-01

    length representation:               0.3100640300991580E-01

    mixed representation:                0.3077857107437581E-01


 Rotatory strength:

    velocity representation:            -0.1378430897198297E-02

    velocity rep. / 10^(-40)erg*cm^3:    -89.05327504219845    

    length representation:              -0.1388634443638381E-02

    length rep. / 10^(-40)erg*cm^3:      -89.71247328665274    


 Dominant contributions:

      occ. orbital   energy / eV   virt. orbital     energy / eV   |coeff.|^2*100
      131 a              -7.24         135 a              -1.94       45.7
      131 a              -7.24         136 a              -1.81       22.2
      128 b              -7.35         132 b              -2.26        9.2
      128 a              -8.07         134 a              -2.47        5.1
      130 a              -7.74         134 a              -2.47        2.9
      126 b              -7.97         132 b              -2.26        2.1
      129 b              -6.60         134 b              -1.44        2.0
      129 b              -6.60         133 b              -1.77        1.7
 

 Change of electron number:

            -0.000000


 Electric transition dipole moment (velocity rep.):

    x        0.000000        Norm:                  0.515324
    y        0.000000
    z       -0.515324        Norm / debye:          1.309833


 Electric transition dipole moment (length rep.):

    x        0.000000        Norm:                  0.519138
    y        0.000000
    z       -0.519138        Norm / debye:          1.319528


 Magnetic transition dipole moment / i:

    x        0.000000        Norm:                  0.002675
    y        0.000000
    z        0.002675        Norm / Bohr mag.:      0.733110


 Electric quadrupole transition moment:

   xx        1.078113
   yy       -0.498308        1/3*trace:             0.189156
   zz       -0.012336
   xy        8.851467
   xz        0.000000        Anisotropy:           15.394823
   yz        0.000000




                        21 singlet a excitation


 Total energy:                           -3507.468081993205    

 Excitation energy:                      0.1730769927947585    

 Excitation energy / eV:                  4.709666618850409    

 Excitation energy / nm:                  263.2548204372305    

 Excitation energy / cm^(-1):             37986.00907629619    


 Oscillator strength:

    velocity representation:             0.5455148512620989E-02

    length representation:               0.6626624631641850E-02

    mixed representation:                0.6012422265859131E-02


 Rotatory strength:

    velocity representation:            -0.3996458296144231E-03

    velocity rep. / 10^(-40)erg*cm^3:    -25.81904544976327    

    length representation:              -0.4404718732903991E-03

    length rep. / 10^(-40)erg*cm^3:      -28.45660450604325    


 Dominant contributions:

      occ. orbital   energy / eV   virt. orbital     energy / eV   |coeff.|^2*100
      131 a              -7.24         135 a              -1.94       19.6
      128 a              -8.07         134 a              -2.47       18.6
      130 a              -7.74         134 a              -2.47        9.9
      133 a              -6.40         137 a              -0.82        9.1
      128 b              -7.35         133 b              -1.77        6.9
      126 b              -7.97         132 b              -2.26        4.6
      125 b              -8.16         132 b              -2.26        3.3
      130 a              -7.74         136 a              -1.81        2.7
      130 b              -6.38         135 b              -0.51        2.1
      128 b              -7.35         132 b              -2.26        2.1
      126 a              -8.28         134 a              -2.47        1.8
      124 b              -8.27         132 b              -2.26        1.7
      122 b              -8.46         132 b              -2.26        1.4
[...]
      121 a              -9.00         132 b              -2.26        4.0
      116 b              -9.57         134 a              -2.47        3.9
      118 a              -9.55         132 b              -2.26        3.9
      126 a              -8.28         134 b              -1.44        3.7
      129 b              -6.60         141 a               0.34        3.5
      129 b              -6.60         140 a               0.25        2.9
      130 b              -6.38         140 a               0.25        2.7
      131 a              -7.24         135 b              -0.51        2.4
      133 a              -6.40         138 b               0.38        2.2
      126 b              -7.97         137 a              -0.82        1.8
      118 b              -9.01         134 a              -2.47        1.8
      130 b              -6.38         143 a               0.80        1.8
      120 a              -9.02         132 b              -2.26        1.4
      128 b              -7.35         139 a              -0.19        0.8
      114 b              -9.91         134 a              -2.47        0.8
      130 b              -6.38         142 a               0.70        0.7
      120 b              -8.79         136 a              -1.81        0.7
      120 a              -9.02         134 b              -1.44        0.6
      131 b              -6.22         143 a               0.80        0.6
      133 a              -6.40         140 b               0.87        0.5
      124 b              -8.27         136 a              -1.81        0.4
      131 b              -6.22         142 a               0.70        0.4
      119 a              -9.08         132 b              -2.26        0.4
      119 a              -9.08         134 b              -1.44        0.4
      125 a              -8.55         134 b              -1.44        0.4
      128 b              -7.35         138 a              -0.46        0.4
      121 b              -8.77         136 a              -1.81        0.3
      115 b              -9.90         134 a              -2.47        0.3
      129 a              -7.91         134 b              -1.44        0.3
      133 a              -6.40         141 b               1.04        0.3
 

 Change of electron number:

             0.000000


 Electric transition dipole moment (velocity rep.):

    x        0.409184        Norm:                  0.462641
    y        0.215883
    z        0.000000        Norm / debye:          1.175926


 Electric transition dipole moment (length rep.):

    x        0.412011        Norm:                  0.473941
    y        0.234237
    z        0.000000        Norm / debye:          1.204647


 Magnetic transition dipole moment / i:

    x        0.001182        Norm:                  0.001206
    y       -0.000236
    z        0.000000        Norm / Bohr mag.:      0.330445


 Electric quadrupole transition moment:

   xx        0.000000
   yy        0.000000        1/3*trace:             0.000000
   zz        0.000000
   xy        0.000000
   xz       -2.410318        Anisotropy:            5.003115
   yz       -1.591882




                        97 singlet b excitation


 Total energy:                           -3507.408939423790    

 Excitation energy:                      0.2322195622101905    

 Excitation energy / eV:                  6.319018505725456    

 Excitation energy / nm:                  196.2080723361235    

 Excitation energy / cm^(-1):             50966.30265739725    


 Oscillator strength:

    velocity representation:             0.1077432452920687E-01

    length representation:               0.1078602872984847E-01

    mixed representation:                0.1077845419334374E-01


 Rotatory strength:

    velocity representation:             0.2655141071941931E-03

    velocity rep. / 10^(-40)erg*cm^3:     17.15349014855023    

    length representation:               0.2608255264716465E-03

    length rep. / 10^(-40)erg*cm^3:       16.85058525176422    


 Dominant contributions:

      occ. orbital   energy / eV   virt. orbital     energy / eV   |coeff.|^2*100
      119 b              -8.87         135 a              -1.94       15.1
      124 a              -8.63         133 b              -1.77       10.5
      130 b              -6.38         142 a               0.70        7.1
      118 a              -9.55         132 b              -2.26        6.0
      126 a              -8.28         134 b              -1.44        5.7
      116 b              -9.57         134 a              -2.47        5.7
      121 a              -9.00         132 b              -2.26        4.6
      133 a              -6.40         138 b               0.38        4.2
      130 b              -6.38         141 a               0.34        3.9
      129 b              -6.60         140 a               0.25        2.7
      118 b              -9.01         134 a              -2.47        2.3
      120 b              -8.79         135 a              -1.94        2.1
      125 a              -8.55         134 b              -1.44        2.0
      124 a              -8.63         134 b              -1.44        1.9
      120 a              -9.02         133 b              -1.77        1.7
      133 a              -6.40         139 b               0.49        1.5
      122 b              -8.46         135 a              -1.94        1.4
      123 b              -8.43         136 a              -1.81        1.4
      115 b              -9.90         134 a              -2.47        1.4
      119 b              -8.87         136 a              -1.81        1.3
      128 b              -7.35         138 a              -0.46        1.1
      119 a              -9.08         133 b              -1.77        1.0
      122 a              -8.79         133 b              -1.77        1.0
      122 b              -8.46         136 a              -1.81        1.0
      131 b              -6.22         143 a               0.80        0.8
      124 b              -8.27         136 a              -1.81        0.8
      133 a              -6.40         141 b               1.04        0.7
      127 b              -7.91         137 a              -0.82        0.7
      124 b              -8.27         135 a              -1.94        0.6
 

 Change of electron number:

             0.000000


 Electric transition dipole moment (velocity rep.):

    x        0.260078        Norm:                  0.263810
    y        0.044214
    z        0.000000        Norm / debye:          0.670543


 Electric transition dipole moment (length rep.):

    x        0.260969        Norm:                  0.263953
    y        0.039582
    z        0.000000        Norm / debye:          0.670907


 Magnetic transition dipole moment / i:

    x        0.000822        Norm:                  0.001430
    y        0.001170
    z        0.000000        Norm / Bohr mag.:      0.391903


 Electric quadrupole transition moment:

   xx        0.000000
   yy        0.000000        1/3*trace:             0.000000
   zz        0.000000
   xy        0.000000
   xz       -0.627374        Anisotropy:            1.951304
   yz       -0.935733




                        98 singlet b excitation


 Total energy:                           -3507.408468498454    

 Excitation energy:                      0.2326904875461680    

 Excitation energy / eV:                  6.331833041609229    

 Excitation energy / nm:                  195.8109811040720    

 Excitation energy / cm^(-1):             51069.65882159818    


 Oscillator strength:

    velocity representation:             0.1028796402385108E-01

    length representation:               0.1133543621733919E-01

    mixed representation:                0.1079888685322899E-01


 Rotatory strength:

    velocity representation:             0.2696928261442826E-03

    velocity rep. / 10^(-40)erg*cm^3:     17.42345551913408    

    length representation:               0.2829589936926938E-03

    length rep. / 10^(-40)erg*cm^3:       18.28051383801374    


 Dominant contributions:

      occ. orbital   energy / eV   virt. orbital     energy / eV   |coeff.|^2*100
      121 a              -9.00         132 b              -2.26       48.5
      118 b              -9.01         134 a              -2.47       21.1
      124 a              -8.63         133 b              -1.77        6.5
      128 b              -7.35         139 a              -0.19        2.3
      119 b              -8.87         136 a              -1.81        1.8
      131 b              -6.22         143 a               0.80        1.7
      126 a              -8.28         134 b              -1.44        1.6
      120 a              -9.02         133 b              -1.77        1.1
      116 b              -9.57         134 a              -2.47        0.8
      119 b              -8.87         135 a              -1.94        0.8
      133 a              -6.40         139 b               0.49        0.8
      122 b              -8.46         136 a              -1.81        0.8
      130 b              -6.38         141 a               0.34        0.6
      130 b              -6.38         142 a               0.70        0.6
      120 a              -9.02         132 b              -2.26        0.6
      123 a              -8.77         132 b              -2.26        0.6
 

 Change of electron number:

             0.000000


 Electric transition dipole moment (velocity rep.):

    x       -0.075290        Norm:                  0.257526
    y        0.246274
    z        0.000000        Norm / debye:          0.654571


 Electric transition dipole moment (length rep.):

    x       -0.077808        Norm:                  0.270318
    y        0.258878
    z        0.000000        Norm / debye:          0.687086


 Magnetic transition dipole moment / i:

    x       -0.000402        Norm:                  0.001052
    y        0.000972
    z        0.000000        Norm / Bohr mag.:      0.288319


 Electric quadrupole transition moment:

   xx        0.000000
   yy        0.000000        1/3*trace:             0.000000
   zz        0.000000
   xy        0.000000
   xz       -1.981004        Anisotropy:            3.441498
   yz        0.153600




                        99 singlet b excitation


 Total energy:                           -3507.408075589916    

 Excitation energy:                      0.2330833960840530    

 Excitation energy / eV:                  6.342524631492193    

 Excitation energy / nm:                  195.4809026532685    

 Excitation energy / cm^(-1):             51155.89227784937    


 Oscillator strength:

    velocity representation:             0.4061523204277447E-01

    length representation:               0.4213120554262439E-01

    mixed representation:                0.4136253936111919E-01


 Rotatory strength:

    velocity representation:             0.5368380739411546E-03

    velocity rep. / 10^(-40)erg*cm^3:     34.68232520685316    

    length representation:               0.5472030807975359E-03

    length rep. / 10^(-40)erg*cm^3:       35.35195457185919    


 Dominant contributions:

      occ. orbital   energy / eV   virt. orbital     energy / eV   |coeff.|^2*100
      133 a              -6.40         138 b               0.38       20.2
      133 a              -6.40         139 b               0.49       18.9
      130 b              -6.38         141 a               0.34       16.2
      119 b              -8.87         136 a              -1.81        6.4
      130 b              -6.38         140 a               0.25        5.7
      128 b              -7.35         138 a              -0.46        4.5
      129 b              -6.60         140 a               0.25        2.4
      131 b              -6.22         143 a               0.80        1.8
      127 b              -7.91         137 a              -0.82        1.7
      131 b              -6.22         142 a               0.70        1.5
      118 a              -9.55         132 b              -2.26        1.3
      126 a              -8.28         134 b              -1.44        1.3
      128 b              -7.35         139 a              -0.19        1.2
      126 b              -7.97         137 a              -0.82        1.2
      116 b              -9.57         134 a              -2.47        1.1
      127 a              -8.19         134 b              -1.44        0.9
      120 b              -8.79         136 a              -1.81        0.9
      124 a              -8.63         134 b              -1.44        0.8
      130 a              -7.74         135 b              -0.51        0.7
      115 b              -9.90         134 a              -2.47        0.7
      133 a              -6.40         141 b               1.04        0.6
 

 Change of electron number:

             0.000000


 Electric transition dipole moment (velocity rep.):

    x        0.472839        Norm:                  0.511251
    y        0.194425
    z        0.000000        Norm / debye:          1.299481


 Electric transition dipole moment (length rep.):

    x        0.484200        Norm:                  0.520705
    y        0.191531
    z        0.000000        Norm / debye:          1.323511


 Magnetic transition dipole moment / i:

    x        0.000998        Norm:                  0.001052
    y        0.000335
    z        0.000000        Norm / Bohr mag.:      0.288421


 Electric quadrupole transition moment:

   xx        0.000000
   yy        0.000000        1/3*trace:             0.000000
   zz        0.000000
   xy        0.000000
   xz       -1.360134        Anisotropy:            2.699725
   yz       -0.761276




                       100 singlet b excitation


 Total energy:                           -3507.407840736478    

 Excitation energy:                      0.2333182495222556    

 Excitation energy / eV:                  6.348915321441011    

 Excitation energy / nm:                  195.2841355243145    

 Excitation energy / cm^(-1):             51207.43664946751    


 Oscillator strength:

    velocity representation:             0.8153944690032723E-02

    length representation:               0.8862215032545825E-02

    mixed representation:                0.8500696558939555E-02


 Rotatory strength:

    velocity representation:             0.3693576445716001E-03

    velocity rep. / 10^(-40)erg*cm^3:     23.86228281579317    

    length representation:               0.3852149187200734E-03

    length rep. / 10^(-40)erg*cm^3:       24.88673910085886    


 Dominant contributions:

      occ. orbital   energy / eV   virt. orbital     energy / eV   |coeff.|^2*100
      127 a              -8.19         134 b              -1.44       16.9
      127 b              -7.91         137 a              -0.82        8.0
      121 a              -9.00         132 b              -2.26        5.5
      128 b              -7.35         139 a              -0.19        5.2
      126 a              -8.28         134 b              -1.44        4.8
      129 b              -6.60         140 a               0.25        4.6
      118 a              -9.55         132 b              -2.26        3.9
      128 a              -8.07         134 b              -1.44        3.6
      118 b              -9.01         134 a              -2.47        2.7
      129 a              -7.91         135 b              -0.51        2.7
      126 b              -7.97         137 a              -0.82        2.6
      133 a              -6.40         138 b               0.38        2.2
      116 b              -9.57         134 a              -2.47        2.2
      114 b              -9.91         134 a              -2.47        1.6
      124 a              -8.63         133 b              -1.77        1.4
      124 b              -8.27         137 a              -0.82        1.4
      127 a              -8.19         138 b               0.38        1.1
      126 b              -7.97         138 a              -0.46        1.0
      130 a              -7.74         134 b              -1.44        1.0
      128 a              -8.07         135 b              -0.51        1.0
      126 a              -8.28         135 b              -0.51        1.0
      130 a              -7.74         135 b              -0.51        1.0
      125 b              -8.16         141 a               0.34        1.0
      125 a              -8.55         134 b              -1.44        0.9
      127 b              -7.91         140 a               0.25        0.8
      129 b              -6.60         142 a               0.70        0.8
      119 b              -8.87         135 a              -1.94        0.7
      122 b              -8.46         136 a              -1.81        0.7
      128 b              -7.35         138 a              -0.46        0.7
      130 b              -6.38         141 a               0.34        0.7
      118 b              -9.01         135 a              -1.94        0.7
      130 a              -7.74         138 b               0.38        0.6
      130 b              -6.38         142 a               0.70        0.6
      124 b              -8.27         140 a               0.25        0.5
      126 a              -8.28         137 b              -0.02        0.4
      115 b              -9.90         134 a              -2.47        0.4
      129 a              -7.91         139 b               0.49        0.4
      129 a              -7.91         134 b              -1.44        0.4
      131 b              -6.22         143 a               0.80        0.4
      131 a              -7.24         136 b              -0.10        0.4
      128 a              -8.07         136 b              -0.10        0.4
      123 b              -8.43         137 a              -0.82        0.3
      121 b              -8.77         135 a              -1.94        0.3
      133 a              -6.40         140 b               0.87        0.3
      126 a              -8.28         136 b              -0.10        0.3
      125 b              -8.16         140 a               0.25        0.3
      130 a              -7.74         137 b              -0.02        0.3
      129 b              -6.60         141 a               0.34        0.3
      124 b              -8.27         138 a              -0.46        0.3
      127 b              -7.91         139 a              -0.19        0.3
      125 a              -8.55         133 b              -1.77        0.3
      124 b              -8.27         136 a              -1.81        0.2
      119 a              -9.08         132 b              -2.26        0.2
 

 Change of electron number:

             0.000000


 Electric transition dipole moment (velocity rep.):

    x       -0.174784        Norm:                  0.228958
    y        0.147892
    z        0.000000        Norm / debye:          0.581957


 Electric transition dipole moment (length rep.):

    x       -0.181981        Norm:                  0.238695
    y        0.154460
    z        0.000000        Norm / debye:          0.606705


 Magnetic transition dipole moment / i:

    x       -0.000966        Norm:                  0.001665
    y        0.001356
    z        0.000000        Norm / Bohr mag.:      0.456255


 Electric quadrupole transition moment:

   xx        0.000000
   yy        0.000000        1/3*trace:             0.000000
   zz        0.000000
   xy        0.000000
   xz       -0.148070        Anisotropy:            1.261232
   yz        0.712959


    ------------------------------------------------------------------------
         total  cpu-time :   2 days 15 hours 53 minutes and 48 seconds
         total wall-time :  8 hours  5 minutes and  1 seconds
    ------------------------------------------------------------------------

   ****  escf : all done  ****


    2018-02-05 23:37:35.845 

